DF-ISE text

Info {
  version   = 1.0
  type      = xyplot
  datasets  = [
    "time"
    "cathode OuterVoltage" "cathode InnerVoltage" "cathode QuasiFermiPotential" "cathode DisplacementCurrent" "cathode eCurrent"
    "cathode hCurrent" "cathode TotalCurrent" "cathode Charge" "anode OuterVoltage" "anode InnerVoltage"
    "anode QuasiFermiPotential" "anode DisplacementCurrent" "anode eCurrent" "anode hCurrent" "anode TotalCurrent"
    "anode Charge" "MaxField" "PhiElectron" "PhiHole" ]
  functions = [
    Time
    OuterVoltage InnerVoltage QuasiFermiPotential DisplacementCurrent eCurrent
    hCurrent TotalCurrent Charge OuterVoltage InnerVoltage
    QuasiFermiPotential DisplacementCurrent eCurrent hCurrent TotalCurrent
    Charge ElectricField IonizationIntegral IonizationIntegral ]
}

Data {
      0.00000000000000E+00
      0.00000000000000E+00   0.00000000000000E+00   0.00000000000000E+00   0.00000000000000E+00  -1.36228422540899E-13
      0.00000000000000E+00  -1.36228422540899E-13   2.65744641295827E-11   0.00000000000000E+00   0.00000000000000E+00
      0.00000000000000E+00   0.00000000000000E+00  -5.00905757984940E-13   0.00000000000000E+00  -5.00905757984940E-13
     -2.65744641295827E-11   2.39286552561089E+03   0.00000000000000E+00   0.00000000000000E+00
      0.00000000000000E+00
      0.00000000000000E+00   0.00000000000000E+00   0.00000000000000E+00   0.00000000000000E+00   1.19135357967556E-27
     -2.64500871654703E-29   1.16490349251009E-27   2.65744641295827E-11   0.00000000000000E+00   0.00000000000000E+00
      0.00000000000000E+00   0.00000000000000E+00  -3.77368172616792E-30  -9.82917718723878E-28  -9.86691400450046E-28
     -2.65744641295827E-11   2.39286552561088E+03   0.00000000000000E+00   0.00000000000000E+00
      1.00000000000000E-04
      0.00000000000000E+00   0.00000000000000E+00   0.00000000000000E+00   0.00000000000000E+00   2.00389558516462E-12
      3.79753843883588E-15   2.00769312360346E-12   2.83814434098632E-11  -5.90000000000000E-02  -5.90000000000000E-02
      0.00000000000000E+00   0.00000000000000E+00  -3.45389482385630E-16  -2.00734773412110E-12  -2.00769312360348E-12
     -2.83814434098632E-11   2.55612796647812E+03   0.00000000000000E+00   0.00000000000000E+00
      2.80000000000000E-04
      0.00000000000000E+00   0.00000000000000E+00   0.00000000000000E+00   0.00000000000000E+00   3.45185242457946E-12
      4.20338623275514E-15   3.45605581081222E-12   3.15403024332964E-11  -1.65200000000000E-01  -1.65200000000000E-01
      0.00000000000000E+00   0.00000000000000E+00  -3.70194827420873E-16  -3.45568561598483E-12  -3.45605581081225E-12
     -3.15403024332964E-11   2.84147821875451E+03   0.00000000000000E+00   0.00000000000000E+00
      6.16000000000000E-04
      0.00000000000000E+00   0.00000000000000E+00   0.00000000000000E+00   0.00000000000000E+00   5.49320457543920E-12
      4.20760539382993E-15   5.49741218083303E-12   3.71838999192624E-11  -3.63440000000000E-01  -3.63440000000000E-01
      0.00000000000000E+00   0.00000000000000E+00  -3.69592397542469E-16  -5.49704258843553E-12  -5.49741218083307E-12
     -3.71838999192624E-11   3.35123014212342E+03  4.11303518660021E-233   0.00000000000000E+00
      1.22080000000000E-03
      0.00000000000000E+00   0.00000000000000E+00   0.00000000000000E+00   0.00000000000000E+00   7.98452248974053E-12
      4.20796654459037E-15   7.98873045628513E-12   4.67628455009912E-11  -7.20272000000000E-01  -7.20272000000000E-01
      0.00000000000000E+00   0.00000000000000E+00  -3.05247285374024E-16  -7.98842520899998E-12  -7.98873045628535E-12
     -4.67628455009911E-11   4.21641750676996E+03  9.02481314388163E-118  7.94479703635109E-191
      2.22080000000000E-03
      0.00000000000000E+00   0.00000000000000E+00   0.00000000000000E+00   0.00000000000000E+00   1.13941955986382E-11
      4.15407755720192E-15   1.13983496761954E-11   6.14794258590476E-11  -1.31027200000000E+00  -1.31027200000000E+00
      0.00000000000000E+00   0.00000000000000E+00   1.34911357708712E-14  -1.14118408119737E-11  -1.13983496762029E-11
     -6.14794258590477E-11   5.53943254362832E+03   8.13091307804298E-52  1.05358256074990E-114
      3.22080000000000E-03
      0.00000000000000E+00   0.00000000000000E+00   0.00000000000000E+00   0.00000000000000E+00   1.38355738329426E-11
      4.21217652234984E-15   1.38397860094649E-11   7.52018547648010E-11  -1.90027200000000E+00  -1.90027200000000E+00
      0.00000000000000E+00   0.00000000000000E+00  -3.98802534931883E-16  -1.38393872069300E-11  -1.38397860094650E-11
     -7.52018547648009E-11   6.78507333027876E+03   1.87602963583935E-32   3.21014897497166E-73
      4.22080000000000E-03
      0.00000000000000E+00   0.00000000000000E+00   0.00000000000000E+00   0.00000000000000E+00   1.64619007608731E-11
      4.21803747834723E-15   1.64661187983515E-11   8.82744850047534E-11  -2.49027200000000E+00  -2.49027200000000E+00
      0.00000000000000E+00   0.00000000000000E+00  -4.12518718675402E-16  -1.64657062796329E-11  -1.64661187983515E-11
     -8.82744850047532E-11   7.97154862392121E+03   1.28695395676811E-28   7.16800721049089E-54
      5.22080000000000E-03
      0.00000000000000E+00   0.00000000000000E+00   0.00000000000000E+00   0.00000000000000E+00   1.85494579318432E-11
      4.17310627684179E-15   1.85536310381201E-11   1.00971897488274E-10  -3.08027200000000E+00  -3.08027200000000E+00
      0.00000000000000E+00   0.00000000000000E+00  -3.09694213742173E-16  -1.85533213439065E-11  -1.85536310381202E-11
     -1.00971897488274E-10   9.11887983449606E+03   4.41600111709653E-19   3.46749106399083E-41
      6.22080000000000E-03
      0.00000000000000E+00   0.00000000000000E+00   0.00000000000000E+00   0.00000000000000E+00   1.96781063941907E-11
      4.22283037208821E-15   1.96823292245628E-11   1.13357166199474E-10  -3.67027200000000E+00  -3.67027200000000E+00
      0.00000000000000E+00   0.00000000000000E+00  -4.39064902125397E-16  -1.96818901596609E-11  -1.96823292245630E-11
     -1.13357166199474E-10   1.02313314215391E+04   5.01998110239136E-17   9.93894621607067E-33
      7.22080000000000E-03
      0.00000000000000E+00   0.00000000000000E+00   0.00000000000000E+00   0.00000000000000E+00   2.11184250558788E-11
      4.22503111126634E-15   2.11226500869901E-11   1.25422587239297E-10  -4.26027200000000E+00  -4.26027200000000E+00
      0.00000000000000E+00   0.00000000000000E+00  -4.53801794138412E-16  -2.11221962851961E-11  -2.11226500869902E-11
     -1.25422587239297E-10   1.13211022752106E+04   1.75715499412907E-14   9.71285617614066E-27
      8.22080000000000E-03
      0.00000000000000E+00   0.00000000000000E+00   0.00000000000000E+00   0.00000000000000E+00   2.58048285323568E-11
      4.22740793901390E-15   2.58090559402958E-11   1.37269188395580E-10  -4.85027200000000E+00  -4.85027200000000E+00
      0.00000000000000E+00   0.00000000000000E+00  -4.69453201164164E-16  -2.58085864870949E-11  -2.58090559402960E-11
     -1.37269188395580E-10   1.23848986683431E+04   1.29578045496710E-11   2.80019214840213E-22
      9.22080000000000E-03
      0.00000000000000E+00   0.00000000000000E+00   0.00000000000000E+00   0.00000000000000E+00   2.79124710653628E-11
      4.20551187590298E-15   2.79166765772387E-11   1.48917776724886E-10  -5.44027200000000E+00  -5.44027200000000E+00
      0.00000000000000E+00   0.00000000000000E+00  -4.51067831865860E-16  -2.79162255094068E-11  -2.79166765772386E-11
     -1.48917776724886E-10   1.34370184398905E+04   7.51763304754604E-10   5.98581502233019E-19
      1.02208000000000E-02
      0.00000000000000E+00   0.00000000000000E+00   0.00000000000000E+00   0.00000000000000E+00   2.86795082860484E-11
      4.23288313571288E-15   2.86837411691841E-11   1.60290712853796E-10  -6.03027200000000E+00  -6.03027200000000E+00
      0.00000000000000E+00   0.00000000000000E+00  -5.03895517143750E-16  -2.86832372736674E-11  -2.86837411691845E-11
     -1.60290712853796E-10   1.44642393620100E+04   8.13179852670634E-09   2.05334332894351E-16
      1.12208000000000E-02
      0.00000000000000E+00   0.00000000000000E+00   0.00000000000000E+00   0.00000000000000E+00   3.13233448717689E-11
      4.23578893338635E-15   3.13275806607023E-11   1.71347321614055E-10  -6.62027200000000E+00  -6.62027200000000E+00
      0.00000000000000E+00   0.00000000000000E+00  -5.22835259373935E-16  -3.13270578254429E-11  -3.13275806607023E-11
     -1.71347321614055E-10   1.54628858225375E+04   7.98069551905512E-08   2.02328309308985E-14
      1.22208000000000E-02
      0.00000000000000E+00   0.00000000000000E+00   0.00000000000000E+00   0.00000000000000E+00   3.35554446404591E-11
      4.23862653409384E-15   3.35596832669932E-11   1.82138188105560E-10  -7.21027200000000E+00  -7.21027200000000E+00
      0.00000000000000E+00   0.00000000000000E+00  -5.42895400049320E-16  -3.35591403715937E-11  -3.35596832669937E-11
     -1.82138188105560E-10   1.64375278372187E+04   5.62168527571620E-07   8.23764756089215E-13
      1.32208000000000E-02
      0.00000000000000E+00   0.00000000000000E+00   0.00000000000000E+00   0.00000000000000E+00   3.37717110979070E-11
      4.24117811609626E-15   3.37759522760231E-11   1.92720765603057E-10  -7.80027200000000E+00  -7.80027200000000E+00
      0.00000000000000E+00   0.00000000000000E+00  -5.64049167611208E-16  -3.37753882268555E-11  -3.37759522760231E-11
     -1.92720765603057E-10   1.73933600876238E+04   2.90192122186219E-06   1.75083470422472E-11
      1.42208000000000E-02
      0.00000000000000E+00   0.00000000000000E+00   0.00000000000000E+00   0.00000000000000E+00   3.39038590030992E-11
      4.24337711760427E-15   3.39081023802168E-11   2.03139374639638E-10  -8.39027200000000E+00  -8.39027200000000E+00
      0.00000000000000E+00   0.00000000000000E+00  -5.86838340089388E-16  -3.39075155418770E-11  -3.39081023802171E-11
     -2.03139374639637E-10   1.83343872075194E+04   1.18214968772645E-05   2.27255347825511E-10
      1.52208000000000E-02
      0.00000000000000E+00   0.00000000000000E+00   0.00000000000000E+00   0.00000000000000E+00   3.47365271801617E-11
      4.24523105368498E-15   3.47407724112154E-11   2.13392560421822E-10  -8.98027200000000E+00  -8.98027200000000E+00
      0.00000000000000E+00   0.00000000000000E+00  -6.11492463384929E-16  -3.47401609187523E-11  -3.47407724112157E-11
     -2.13392560421822E-10   1.92724167489436E+04   4.44982510675729E-05   1.99340129738573E-09
      1.62208000000000E-02
      0.00000000000000E+00   0.00000000000000E+00   0.00000000000000E+00   0.00000000000000E+00   3.84988135355883E-11
      4.24675615500968E-15   3.85030602917433E-11   2.23481271475295E-10  -9.57027200000000E+00  -9.57027200000000E+00
      0.00000000000000E+00   0.00000000000000E+00  -6.38239272172974E-16  -3.85024220524715E-11  -3.85030602917437E-11
     -2.23481271475295E-10   2.01836495536000E+04   1.32218601497943E-04   1.28185467280836E-08
      1.72208000000000E-02
      0.00000000000000E+00   0.00000000000000E+00   0.00000000000000E+00   0.00000000000000E+00   4.08136571104026E-11
      4.24804548115481E-15   4.08179051558837E-11   2.33461879832535E-10  -1.01602720000000E+01  -1.01602720000000E+01
      0.00000000000000E+00   0.00000000000000E+00  -6.67074659650533E-16  -4.08172380812242E-11  -4.08179051558839E-11
     -2.33461879832534E-10   2.10851175296583E+04   3.11456677290039E-04   6.46832710712685E-08
      1.82208000000000E-02
      0.00000000000000E+00   0.00000000000000E+00   0.00000000000000E+00   0.00000000000000E+00   4.21984951532277E-11
      4.24920028711387E-15   4.22027443535148E-11   2.43378709836947E-10  -1.07502720000000E+01  -1.07502720000000E+01
      0.00000000000000E+00   0.00000000000000E+00  -6.97907345388419E-16  -4.22020464461697E-11  -4.22027443535151E-11
     -2.43378709836947E-10   2.19808247114028E+04   6.71825584058843E-04   2.70189145867347E-07
      1.92208000000000E-02
      0.00000000000000E+00   0.00000000000000E+00   0.00000000000000E+00   0.00000000000000E+00   4.54591115584922E-11
      4.25030983129127E-15   4.54633618683235E-11   2.53231326197486E-10  -1.13402720000000E+01  -1.13402720000000E+01
      0.00000000000000E+00   0.00000000000000E+00  -7.31583388291958E-16  -4.54626302849355E-11  -4.54633618683238E-11
     -2.53231326197485E-10   2.28707323811801E+04   1.33688717665225E-03   9.64725562826849E-07
      2.02208000000000E-02
      0.00000000000000E+00   0.00000000000000E+00   0.00000000000000E+00   0.00000000000000E+00   5.06934450429128E-11
      4.25145856227979E-15   5.06976965014751E-11   2.62989868370348E-10  -1.19302720000000E+01  -1.19302720000000E+01
      0.00000000000000E+00   0.00000000000000E+00  -7.68826072620526E-16  -5.06969276754024E-11  -5.06976965014750E-11
     -2.62989868370349E-10   2.37521438732964E+04   2.47099518583576E-03   2.96640690262396E-06
      2.12208000000000E-02
      0.00000000000000E+00   0.00000000000000E+00   0.00000000000000E+00   0.00000000000000E+00   5.62267538213679E-11
      4.25267328992601E-15   5.62310064946579E-11   2.72615076663476E-10  -1.25202720000000E+01  -1.25202720000000E+01
      0.00000000000000E+00   0.00000000000000E+00  -8.09829296470140E-16  -5.62301966653614E-11  -5.62310064946579E-11
     -2.72615076663475E-10   2.46215129912536E+04   4.27791797880454E-03   7.94550707737587E-06
      2.22208000000000E-02
      0.00000000000000E+00   0.00000000000000E+00   0.00000000000000E+00   0.00000000000000E+00   6.21707978502328E-11
      4.25392162422493E-15   6.21750517718571E-11   2.82106243509902E-10  -1.31102720000000E+01  -1.31102720000000E+01
      0.00000000000000E+00   0.00000000000000E+00  -8.55244488201831E-16  -6.21741965273692E-11  -6.21750517718574E-11
     -2.82106243509902E-10   2.54787746721065E+04   6.99839333824579E-03   1.90209641453039E-05
      2.32208000000000E-02
      0.00000000000000E+00   0.00000000000000E+00   0.00000000000000E+00   0.00000000000000E+00   6.40471928696630E-11
      4.25518206489239E-15   6.40514480517279E-11   2.91509068215056E-10  -1.37002720000000E+01  -1.37002720000000E+01
      0.00000000000000E+00   0.00000000000000E+00  -9.04785967294034E-16  -6.40505432657613E-11  -6.40514480517285E-11
     -2.91509068215055E-10   2.63280562884128E+04   1.08872974665190E-02   4.16774744449877E-05
      2.42208000000000E-02
      0.00000000000000E+00   0.00000000000000E+00   0.00000000000000E+00   0.00000000000000E+00   6.45653530473400E-11
      4.25644901540294E-15   6.45696094963554E-11   3.00850481546330E-10  -1.42902720000000E+01  -1.42902720000000E+01
      0.00000000000000E+00   0.00000000000000E+00  -9.59074705156506E-16  -6.45686504216507E-11  -6.45696094963558E-11
     -3.00850481546330E-10   2.71717910369997E+04   1.62485117599467E-02   8.48695172849463E-05
      2.52208000000000E-02
      0.00000000000000E+00   0.00000000000000E+00   0.00000000000000E+00   0.00000000000000E+00   6.50245377747021E-11
      4.25771926361358E-15   6.50287954939657E-11   3.10120421619150E-10  -1.48802720000000E+01  -1.48802720000000E+01
      0.00000000000000E+00   0.00000000000000E+00  -1.01995261272159E-15  -6.50277755413526E-11  -6.50287954939653E-11
     -3.10120421619149E-10   2.80090707451713E+04   2.33811137789571E-02   1.62084849079972E-04
      2.62208000000000E-02
      0.00000000000000E+00   0.00000000000000E+00   0.00000000000000E+00   0.00000000000000E+00   6.58550561824392E-11
      4.25898831145629E-15   6.58593151707506E-11   3.19285461574460E-10  -1.54702720000000E+01  -1.54702720000000E+01
      0.00000000000000E+00   0.00000000000000E+00  -1.08893019341046E-15  -6.58582262405579E-11  -6.58593151707513E-11
     -3.19285461574461E-10   2.88368765364023E+04   3.25518172051565E-02   2.92112714059660E-04
      2.72208000000000E-02
      0.00000000000000E+00   0.00000000000000E+00   0.00000000000000E+00   0.00000000000000E+00   6.89741444170934E-11
      4.26025265443882E-15   6.89784046697478E-11   3.28317391699058E-10  -1.60602720000000E+01  -1.60602720000000E+01
      0.00000000000000E+00   0.00000000000000E+00  -1.16661507524616E-15  -6.89772380546732E-11  -6.89784046697484E-11
     -3.28317391699057E-10   2.96526598180396E+04   4.40285035246926E-02   4.99652950740263E-04
      2.82208000000000E-02
      0.00000000000000E+00   0.00000000000000E+00   0.00000000000000E+00   0.00000000000000E+00   7.43947374846014E-11
      4.26151509831330E-15   7.43989989996998E-11   3.37232987165639E-10  -1.66502720000000E+01  -1.66502720000000E+01
      0.00000000000000E+00   0.00000000000000E+00  -1.25460279694539E-15  -7.43977443969048E-11  -7.43989989997018E-11
     -3.37232987165639E-10   3.04579347681370E+04   5.81076361002012E-02   8.17293321933770E-04
      2.92208000000000E-02
      0.00000000000000E+00   0.00000000000000E+00   0.00000000000000E+00   0.00000000000000E+00   7.64636568507921E-11
      4.26278060083797E-15   7.64679196313929E-11   3.46063183102484E-10  -1.72402720000000E+01  -1.72402720000000E+01
      0.00000000000000E+00   0.00000000000000E+00  -1.35413679147846E-15  -7.64665654946023E-11  -7.64679196313938E-11
     -3.46063183102483E-10   3.12554959456597E+04   7.50235944718744E-02   1.28791256894006E-03
      3.02208000000000E-02
      0.00000000000000E+00   0.00000000000000E+00   0.00000000000000E+00   0.00000000000000E+00   7.78554025128715E-11
      4.26404911536452E-15   7.78596665619869E-11   3.54803307019298E-10  -1.78302720000000E+01  -1.78302720000000E+01
      0.00000000000000E+00   0.00000000000000E+00  -1.46844900401475E-15  -7.78581981129833E-11  -7.78596665619873E-11
     -3.54803307019297E-10   3.20449222358781E+04   9.50344868750217E-02   1.96350935085261E-03
      3.12208000000000E-02
      0.00000000000000E+00   0.00000000000000E+00   0.00000000000000E+00   0.00000000000000E+00   7.96242089807342E-11
      4.26531628594866E-15   7.96284742970202E-11   3.63419621312692E-10  -1.84202720000000E+01  -1.84202720000000E+01
      0.00000000000000E+00   0.00000000000000E+00  -1.60149837643688E-15  -7.96268727986444E-11  -7.96284742970208E-11
     -3.63419621312692E-10   3.28231666822645E+04   1.18198253487406E-01   2.90322355171472E-03
      3.22208000000000E-02
      0.00000000000000E+00   0.00000000000000E+00   0.00000000000000E+00   0.00000000000000E+00   8.33320536144824E-11
      4.26657941155928E-15   8.33363201938939E-11   3.71891107688708E-10  -1.90102720000000E+01  -1.90102720000000E+01
      0.00000000000000E+00   0.00000000000000E+00  -1.75627532498061E-15  -8.33345639185695E-11  -8.33363201938945E-11
     -3.71891107688708E-10   3.35825984635906E+04   1.44391047206395E-01   4.17056898203372E-03
      3.32208000000000E-02
      0.00000000000000E+00   0.00000000000000E+00   0.00000000000000E+00   0.00000000000000E+00   9.12312919965125E-11
      4.26783944509209E-15   9.12355598359576E-11   3.80228990389785E-10  -1.96002720000000E+01  -1.96002720000000E+01
      0.00000000000000E+00   0.00000000000000E+00  -1.93810886926528E-15  -9.12336217270888E-11  -9.12355598359580E-11
     -3.80228990389786E-10   3.43356942493165E+04   1.73236001090479E-01   5.84991613128003E-03
      3.42208000000000E-02
      0.00000000000000E+00   0.00000000000000E+00   0.00000000000000E+00   0.00000000000000E+00   9.57173690621432E-11
      4.26909880271844E-15   9.57216381609459E-11   3.88422630297834E-10  -2.01902720000000E+01  -2.01902720000000E+01
      0.00000000000000E+00   0.00000000000000E+00  -2.15358259623347E-15  -9.57194845783504E-11  -9.57216381609466E-11
     -3.88422630297833E-10   3.50757625663964E+04   2.03604215704137E-01   8.02012478307417E-03
      3.52208000000000E-02
      0.00000000000000E+00   0.00000000000000E+00   0.00000000000000E+00   0.00000000000000E+00   9.93460807047614E-11
      4.27034804337177E-15   9.93503510528047E-11   3.96430476991164E-10  -2.07802720000000E+01  -2.07802720000000E+01
      0.00000000000000E+00   0.00000000000000E+00  -2.41025011411560E-15  -9.93479408026909E-11  -9.93503510528050E-11
     -3.96430476991164E-10   3.57990506861394E+04   2.35149766549937E-01   1.07553098109964E-02
      3.62208000000000E-02
      0.00000000000000E+00   0.00000000000000E+00   0.00000000000000E+00   0.00000000000000E+00   1.06011813644441E-10
      4.27158213268674E-15   1.06016085226574E-10   4.04214919703854E-10  -2.13702720000000E+01  -2.13702720000000E+01
      0.00000000000000E+00   0.00000000000000E+00  -2.71670462461429E-15  -1.06013368521950E-10  -1.06016085226574E-10
     -4.04214919703854E-10   3.65021616468366E+04   2.67741302920420E-01   1.41238093004127E-02
      3.72208000000000E-02
      0.00000000000000E+00   0.00000000000000E+00   0.00000000000000E+00   0.00000000000000E+00   1.16210602635259E-10
      4.27278779427072E-15   1.16214875423053E-10   4.11696161957941E-10  -2.19602720000000E+01  -2.19602720000000E+01
      0.00000000000000E+00   0.00000000000000E+00  -3.07860281981478E-15  -1.16211796820235E-10  -1.16214875423055E-10
     -4.11696161957941E-10   3.71778900194304E+04   3.00777433779514E-01   1.81557027014676E-02
      3.82208000000000E-02
      0.00000000000000E+00   0.00000000000000E+00   0.00000000000000E+00   0.00000000000000E+00   1.23983994585340E-10
      4.27381994438385E-15   1.23988268405285E-10   4.18648441430369E-10  -2.25502720000000E+01  -2.25502720000000E+01
      0.00000000000000E+00   0.00000000000000E+00  -2.99887395528952E-15  -1.23985269531330E-10  -1.23988268405285E-10
     -4.18648441430369E-10   3.78058515291451E+04   3.32747179464328E-01   2.27386302625595E-02
      3.92208000000000E-02
      0.00000000000000E+00   0.00000000000000E+00   0.00000000000000E+00   0.00000000000000E+00   1.43384737656100E-10
      4.27449778155324E-15   1.43389012153882E-10   4.23500128640628E-10  -2.31402720000000E+01  -2.31402720000000E+01
      0.00000000000000E+00   0.00000000000000E+00  -3.78273823603777E-15  -1.43385229415645E-10  -1.43389012153881E-10
     -4.23500128640627E-10   3.82441737951342E+04   3.55841747717976E-01   2.64717263494371E-02
      4.02208000000000E-02
      0.00000000000000E+00   0.00000000000000E+00   0.00000000000000E+00   0.00000000000000E+00   4.85321069250599E-10
      4.27485749866001E-15   4.85325344108098E-10   4.24343613935177E-10  -2.37302720000000E+01  -2.37302720000000E+01
      0.00000000000000E+00   0.00000000000000E+00  -3.82527002160930E-15  -4.85321518838075E-10  -4.85325344108096E-10
     -4.24343613935177E-10   3.83203809133332E+04   3.60466603808254E-01   2.69385768038676E-02
      4.12208000000000E-02
      0.00000000000000E+00   0.00000000000000E+00   0.00000000000000E+00   0.00000000000000E+00   7.48311711340341E-10
      4.27491989311022E-15   7.48315986260234E-10   4.24780102330017E-10  -2.43202720000000E+01  -2.43202720000000E+01
      0.00000000000000E+00   0.00000000000000E+00  -3.84059508381841E-15  -7.48312145665144E-10  -7.48315986260228E-10
     -4.24780102330016E-10   3.83598063350482E+04   3.62576028721234E-01   2.72298894996395E-02
      4.22208000000000E-02
      0.00000000000000E+00   0.00000000000000E+00   0.00000000000000E+00   0.00000000000000E+00   9.44749278231831E-10
      4.27496928365799E-15   9.44753553201114E-10   4.25117405592413E-10  -2.49102720000000E+01  -2.49102720000000E+01
      0.00000000000000E+00   0.00000000000000E+00  -3.84910078817742E-15  -9.44749704100323E-10  -9.44753553201111E-10
     -4.25117405592414E-10   3.83902724556807E+04   3.64189824005267E-01   2.74799911932749E-02
      4.32208000000000E-02
      0.00000000000000E+00   0.00000000000000E+00   0.00000000000000E+00   0.00000000000000E+00   1.11828726244150E-09
      4.27501090302246E-15   1.11829153745240E-09   4.25402572833574E-10  -2.55002720000000E+01  -2.55002720000000E+01
      0.00000000000000E+00   0.00000000000000E+00  -3.85426487306769E-15  -1.11828768318753E-09  -1.11829153745241E-09
     -4.25402572833574E-10   3.84160294001921E+04   3.65552212233163E-01   2.76999569414245E-02
      4.42208000000000E-02
      0.00000000000000E+00   0.00000000000000E+00   0.00000000000000E+00   0.00000000000000E+00   1.26676254720531E-09
      4.27504872930275E-15   1.26676682225404E-09   4.25654161615827E-10  -2.60902720000000E+01  -2.60902720000000E+01
      0.00000000000000E+00   0.00000000000000E+00  -3.85735226379391E-15  -1.26676296490178E-09  -1.26676682225405E-09
     -4.25654161615827E-10   3.84387534206921E+04   3.66754966470800E-01   2.79001902904730E-02
      4.52208000000000E-02
      0.00000000000000E+00   0.00000000000000E+00   0.00000000000000E+00   0.00000000000000E+00   1.40245198701685E-09
      4.27508291078735E-15   1.40245626209976E-09   4.25881864200640E-10  -2.66802720000000E+01  -2.66802720000000E+01
      0.00000000000000E+00   0.00000000000000E+00  -3.85905650116915E-15  -1.40245240304326E-09  -1.40245626209976E-09
     -4.25881864200640E-10   3.84593199696390E+04   3.67844363564810E-01   2.80848752799431E-02
      4.62208000000000E-02
      0.00000000000000E+00   0.00000000000000E+00   0.00000000000000E+00   0.00000000000000E+00   1.52154274062712E-09
      4.27511496625657E-15   1.52154701574208E-09   4.26092989255703E-10  -2.72702720000000E+01  -2.72702720000000E+01
      0.00000000000000E+00   0.00000000000000E+00  -3.85987796185247E-15  -1.52154315586412E-09  -1.52154701574209E-09
     -4.26092989255702E-10   3.84783891907534E+04   3.68855848131233E-01   2.82592888487890E-02
      4.72208000000000E-02
      0.00000000000000E+00   0.00000000000000E+00   0.00000000000000E+00   0.00000000000000E+00   1.62511638054649E-09
      4.27514556355692E-15   1.62512065569205E-09   4.26292071275509E-10  -2.78602720000000E+01  -2.78602720000000E+01
      0.00000000000000E+00   0.00000000000000E+00  -3.85980226498506E-15  -1.62511679588979E-09  -1.62512065569205E-09
     -4.26292071275510E-10   3.84963706553229E+04   3.69811090813548E-01   2.84263389505365E-02
      4.82208000000000E-02
      0.00000000000000E+00   0.00000000000000E+00   0.00000000000000E+00   0.00000000000000E+00   1.71349590625766E-09
      4.27517533502736E-15   1.71350018143299E-09   4.26483248857666E-10  -2.84502720000000E+01  -2.84502720000000E+01
      0.00000000000000E+00   0.00000000000000E+00  -3.86022254265527E-15  -1.71349632121047E-09  -1.71350018143301E-09
     -4.26483248857665E-10   3.85136381707465E+04   3.70729915063517E-01   2.85890221070335E-02
      4.92208000000000E-02
      0.00000000000000E+00   0.00000000000000E+00   0.00000000000000E+00   0.00000000000000E+00   1.77744614519141E-09
      4.27520504267261E-15   1.77745042039645E-09   4.26669828682612E-10  -2.90402720000000E+01  -2.90402720000000E+01
      0.00000000000000E+00   0.00000000000000E+00  -3.86012397401449E-15  -1.77744656027248E-09  -1.77745042039645E-09
     -4.26669828682614E-10   3.85304904052679E+04   3.71628747504596E-01   2.87504321348135E-02
      5.02208000000000E-02
      0.00000000000000E+00   0.00000000000000E+00   0.00000000000000E+00   0.00000000000000E+00   1.82295099695187E-09
      4.27523480715856E-15   1.82295527218667E-09   4.26853671312055E-10  -2.96302720000000E+01  -2.96302720000000E+01
      0.00000000000000E+00   0.00000000000000E+00  -3.85999403058019E-15  -1.82295141219263E-09  -1.82295527218666E-09
     -4.26853671312054E-10   3.85470954097547E+04   3.72516109873201E-01   2.89115251030160E-02
      5.12208000000000E-02
      0.00000000000000E+00   0.00000000000000E+00   0.00000000000000E+00   0.00000000000000E+00   1.85969410972339E-09
      4.27526454039174E-15   1.85969838498793E-09   4.27035837367666E-10  -3.02202720000000E+01  -3.02202720000000E+01
      0.00000000000000E+00   0.00000000000000E+00  -3.85986298369384E-15  -1.85969452512495E-09  -1.85969838498793E-09
     -4.27035837367666E-10   3.85635489821832E+04   3.73396489131174E-01   2.90725153720909E-02
      5.22208000000000E-02
      0.00000000000000E+00   0.00000000000000E+00   0.00000000000000E+00   0.00000000000000E+00   1.88951462990111E-09
      4.27529429286685E-15   1.88951890519540E-09   4.27216944531550E-10  -3.08102720000000E+01  -3.08102720000000E+01
      0.00000000000000E+00   0.00000000000000E+00  -3.85974689393917E-15  -1.88951504544850E-09  -1.88951890519539E-09
     -4.27216944531550E-10   3.85799069131041E+04   3.74272733736298E-01   2.92337870895083E-02
      5.32208000000000E-02
      0.00000000000000E+00   0.00000000000000E+00   0.00000000000000E+00   0.00000000000000E+00   1.91188300258909E-09
      4.27532413347965E-15   1.91188727791322E-09   4.27397351636608E-10  -3.14002720000000E+01  -3.14002720000000E+01
      0.00000000000000E+00   0.00000000000000E+00  -3.85965549751115E-15  -1.91188341825774E-09  -1.91188727791323E-09
     -4.27397351636609E-10   3.85962016131585E+04   3.75146589134076E-01   2.93956552852246E-02
      5.42208000000000E-02
      0.00000000000000E+00   0.00000000000000E+00   0.00000000000000E+00   0.00000000000000E+00   1.92976592491615E-09
      4.27535402151119E-15   1.92977020027017E-09   4.27577275250622E-10  -3.19902720000000E+01  -3.19902720000000E+01
      0.00000000000000E+00   0.00000000000000E+00  -3.85958527660684E-15  -1.92976634068491E-09  -1.92977020027018E-09
     -4.27577275250621E-10   3.86124526432500E+04   3.76018913858973E-01   2.95581246978962E-02
      5.52208000000000E-02
      0.00000000000000E+00   0.00000000000000E+00   0.00000000000000E+00   0.00000000000000E+00   1.94437089232799E-09
      4.27538394818822E-15   1.94437516771194E-09   4.27756850342778E-10  -3.25802720000000E+01  -3.25802720000000E+01
      0.00000000000000E+00   0.00000000000000E+00  -3.85953376900907E-15  -1.94437130817818E-09  -1.94437516771195E-09
     -4.27756850342778E-10   3.86286721941044E+04   3.76890280403483E-01   2.97212394363096E-02
      5.62208000000000E-02
      0.00000000000000E+00   0.00000000000000E+00   0.00000000000000E+00   0.00000000000000E+00   1.95750226714767E-09
      4.27541388241894E-15   1.95750654256155E-09   4.27936161798969E-10  -3.31702720000000E+01  -3.31702720000000E+01
      0.00000000000000E+00   0.00000000000000E+00  -3.85949518263973E-15  -1.95750268306635E-09  -1.95750654256153E-09